# vtk DataFile Version 3.0
Generated by GMDS VTK Writer

ASCII
DATASET UNSTRUCTURED_GRID
POINTS 47 float
0 0 0
1 0 0
1 1 0
0 1 0
0 0.904766 0
0 0.788371 0
0 0.646111 0
0 0.472239 0
0 0.25973 0
0.25 0 0
0.5 0 0
0.75 0 0
1 0.25 0
1 0.5 0
1 0.75 0
0.74027 1 0
0.527761 1 0
0.353889 1 0
0.211629 1 0
0.0952336 1 0
0.440825 0.559175 0
0.240412 0.727096 0
0.655212 0.33452 0
0.634016 0.75006 0
0.260023 0.377195 0
0.153164 0.847466 0
0.462302 0.838614 0
0.157924 0.561497 0
0.282759 0.880791 0
0.110053 0.732072 0
0.423543 0.214406 0
0.764257 0.547825 0
0.180183 0.182981 0
0.802624 0.822773 0
0.0857096 0.91429 0
0.814694 0.185306 0
0.578863 0.525292 0
0.313857 0.575667 0
0.616762 0.14641 0
0.849085 0.3701 0
0.412497 0.396265 0
0.634016 0.897616 0
0.102384 0.365984 0
0.499857 0.681824 0
0.16161 0.935723 0
0.0631406 0.840452 0
0.376123 0.7162 0
CELLS 72 288
3 26 17 16 
3 27 7 6 
3 37 24 27 
3 9 32 30 
3 33 14 31 
3 28 17 26 
3 6 29 27 
3 30 10 9 
3 31 14 13 
3 40 24 37 
3 43 23 36 
3 29 21 27 
3 23 33 31 
3 32 24 30 
3 36 23 31 
3 40 36 22 
3 19 34 3 
3 34 4 3 
3 40 37 20 
3 30 40 22 
3 8 32 0 
3 33 15 2 
3 28 18 17 
3 29 6 5 
3 44 28 25 
3 45 25 29 
3 44 18 28 
3 5 45 29 
3 21 29 25 
3 28 21 25 
3 46 21 28 
3 16 41 26 
3 42 7 27 
3 21 37 27 
3 46 28 26 
3 32 9 0 
3 33 2 14 
3 24 42 27 
3 26 41 23 
3 1 35 12 
3 11 35 1 
3 20 43 36 
3 24 40 30 
3 44 19 18 
3 4 45 5 
3 42 8 7 
3 41 16 15 
3 36 31 22 
3 38 30 22 
3 31 39 22 
3 43 26 23 
3 38 11 10 
3 12 39 13 
3 38 10 30 
3 39 31 13 
3 40 20 36 
3 8 42 32 
3 41 15 33 
3 42 24 32 
3 23 41 33 
3 35 38 22 
3 39 35 22 
3 39 12 35 
3 11 38 35 
3 37 46 20 
3 46 43 20 
3 25 45 34 
3 44 25 34 
3 19 44 34 
3 45 4 34 
3 21 46 37 
3 43 46 26 
CELL_TYPES 72
5 
5 
5 
5 
5 
5 
5 
5 
5 
5 
5 
5 
5 
5 
5 
5 
5 
5 
5 
5 
5 
5 
5 
5 
5 
5 
5 
5 
5 
5 
5 
5 
5 
5 
5 
5 
5 
5 
5 
5 
5 
5 
5 
5 
5 
5 
5 
5 
5 
5 
5 
5 
5 
5 
5 
5 
5 
5 
5 
5 
5 
5 
5 
5 
5 
5 
5 
5 
5 
5 
5 
5 
POINT_DATA 47
SCALARS GMDS_ID int 1
LOOKUP_TABLE default
0
1
2
3
4
5
6
7
8
9
10
11
12
13
14
15
16
17
18
19
20
21
22
23
24
25
26
27
28
29
30
31
32
33
34
35
36
37
38
39
40
41
42
43
44
45
46
VECTORS cross_X float 
1 0 0
1 0 0
1 0 0
1 0 0
1 0 0
1 0 0
1 0 0
1 0 0
1 0 0
1 0 0
1 0 0
1 0 0
1 0 0
1 0 0
1 0 0
1 0 0
1 0 0
1 0 0
1 0 0
1 0 0
1 0 0
1 0 0
1 0 0
1 0 0
1 0 0
1 0 0
1 0 0
1 0 0
1 0 0
1 0 0
1 0 0
1 0 0
1 0 0
1 0 0
1 0 0
1 0 0
1 0 0
1 0 0
1 0 0
1 0 0
1 0 0
1 0 0
1 0 0
1 0 0
1 0 0
1 0 0
1 0 0
VECTORS cross_Y float 
6.12323e-17 1 0
6.12323e-17 1 0
6.12323e-17 1 0
6.12323e-17 1 0
6.12323e-17 1 0
6.12323e-17 1 0
6.12323e-17 1 0
6.12323e-17 1 0
6.12323e-17 1 0
6.12323e-17 1 0
6.12323e-17 1 0
6.12323e-17 1 0
6.12323e-17 1 0
6.12323e-17 1 0
6.12323e-17 1 0
6.12323e-17 1 0
6.12323e-17 1 0
6.12323e-17 1 0
6.12323e-17 1 0
6.12323e-17 1 0
6.12323e-17 1 0
6.12323e-17 1 0
6.12323e-17 1 0
6.12323e-17 1 0
6.12323e-17 1 0
6.12323e-17 1 0
6.12323e-17 1 0
6.12323e-17 1 0
6.12323e-17 1 0
6.12323e-17 1 0
6.12323e-17 1 0
6.12323e-17 1 0
6.12323e-17 1 0
6.12323e-17 1 0
6.12323e-17 1 0
6.12323e-17 1 0
6.12323e-17 1 0
6.12323e-17 1 0
6.12323e-17 1 0
6.12323e-17 1 0
6.12323e-17 1 0
6.12323e-17 1 0
6.12323e-17 1 0
6.12323e-17 1 0
6.12323e-17 1 0
6.12323e-17 1 0
6.12323e-17 1 0
VECTORS cross_XI float 
-1 1.22465e-16 0
-1 1.22465e-16 0
-1 1.22465e-16 0
-1 1.22465e-16 0
-1 1.22465e-16 0
-1 1.22465e-16 0
-1 1.22465e-16 0
-1 1.22465e-16 0
-1 1.22465e-16 0
-1 1.22465e-16 0
-1 1.22465e-16 0
-1 1.22465e-16 0
-1 1.22465e-16 0
-1 1.22465e-16 0
-1 1.22465e-16 0
-1 1.22465e-16 0
-1 1.22465e-16 0
-1 1.22465e-16 0
-1 1.22465e-16 0
-1 1.22465e-16 0
-1 1.22465e-16 0
-1 1.22465e-16 0
-1 1.22465e-16 0
-1 1.22465e-16 0
-1 1.22465e-16 0
-1 1.22465e-16 0
-1 1.22465e-16 0
-1 1.22465e-16 0
-1 1.22465e-16 0
-1 1.22465e-16 0
-1 1.22465e-16 0
-1 1.22465e-16 0
-1 1.22465e-16 0
-1 1.22465e-16 0
-1 1.22465e-16 0
-1 1.22465e-16 0
-1 1.22465e-16 0
-1 1.22465e-16 0
-1 1.22465e-16 0
-1 1.22465e-16 0
-1 1.22465e-16 0
-1 1.22465e-16 0
-1 1.22465e-16 0
-1 1.22465e-16 0
-1 1.22465e-16 0
-1 1.22465e-16 0
-1 1.22465e-16 0
VECTORS cross_YI float 
-1.83697e-16 -1 0
-1.83697e-16 -1 0
-1.83697e-16 -1 0
-1.83697e-16 -1 0
-1.83697e-16 -1 0
-1.83697e-16 -1 0
-1.83697e-16 -1 0
-1.83697e-16 -1 0
-1.83697e-16 -1 0
-1.83697e-16 -1 0
-1.83697e-16 -1 0
-1.83697e-16 -1 0
-1.83697e-16 -1 0
-1.83697e-16 -1 0
-1.83697e-16 -1 0
-1.83697e-16 -1 0
-1.83697e-16 -1 0
-1.83697e-16 -1 0
-1.83697e-16 -1 0
-1.83697e-16 -1 0
-1.83697e-16 -1 0
-1.83697e-16 -1 0
-1.83697e-16 -1 0
-1.83697e-16 -1 0
-1.83697e-16 -1 0
-1.83697e-16 -1 0
-1.83697e-16 -1 0
-1.83697e-16 -1 0
-1.83697e-16 -1 0
-1.83697e-16 -1 0
-1.83697e-16 -1 0
-1.83697e-16 -1 0
-1.83697e-16 -1 0
-1.83697e-16 -1 0
-1.83697e-16 -1 0
-1.83697e-16 -1 0
-1.83697e-16 -1 0
-1.83697e-16 -1 0
-1.83697e-16 -1 0
-1.83697e-16 -1 0
-1.83697e-16 -1 0
-1.83697e-16 -1 0
-1.83697e-16 -1 0
-1.83697e-16 -1 0
-1.83697e-16 -1 0
-1.83697e-16 -1 0
-1.83697e-16 -1 0
CELL_DATA 72
SCALARS GMDS_ID int 1
LOOKUP_TABLE default
0
1
2
3
4
5
6
7
8
9
10
11
12
13
14
15
16
17
18
19
20
21
22
23
24
25
26
27
28
29
30
31
32
33
34
35
36
37
38
39
40
41
42
43
44
45
46
47
48
49
50
51
52
53
54
55
56
57
58
59
60
61
62
63
64
65
66
67
68
69
70
71
SCALARS color int 1
LOOKUP_TABLE default
2
2
2
2
2
2
2
2
2
2
2
2
2
2
2
2
2
2
2
2
2
2
2
2
2
2
2
2
2
2
2
2
2
2
2
2
2
2
2
2
2
2
2
2
2
2
2
2
2
2
2
2
2
2
2
2
2
2
2
2
2
2
2
2
2
2
2
2
2
2
2
2
